/*--------------------------------*- C++ -*----------------------------------*\
| =========                 |                                                 |
| \\      /  F ield         | OpenFOAM: The Open Source CFD Toolbox           |
|  \\    /   O peration     | Version:  2412                                  |
|   \\  /    A nd           | Website:  www.openfoam.com                      |
|    \\/     M anipulation  |                                                 |
\*---------------------------------------------------------------------------*/
FoamFile
{
    version     2.0;
    format      ascii;
    arch        "LSB;label=32;scalar=64";
    class       volVectorField;
    location    "0";
    object      U;
}
// * * * * * * * * * * * * * * * * * * * * * * * * * * * * * * * * * * * * * //

dimensions      [0 1 -1 0 0 0 0];

internalField   nonuniform List<vector> 
1000
(
(0.999754 -1.70004e-05 0)
(0.99936 -1.14899e-05 0)
(0.99917 -1.0502e-05 0)
(0.999174 -6.59064e-06 0)
(0.999306 -5.19631e-06 0)
(0.999482 -1.41789e-06 0)
(0.99964 -2.03585e-07 0)
(0.99975 2.80256e-06 0)
(0.999812 3.50531e-06 0)
(0.99984 5.69499e-06 0)
(0.999852 6.06297e-06 0)
(0.999865 7.4599e-06 0)
(0.999885 7.66054e-06 0)
(0.999914 8.29473e-06 0)
(0.999951 8.29771e-06 0)
(0.999992 8.18541e-06 0)
(1.00003 7.98355e-06 0)
(1.00007 7.23341e-06 0)
(1.00009 6.79695e-06 0)
(1.00011 5.57603e-06 0)
(1.00012 4.97304e-06 0)
(1.00012 3.51373e-06 0)
(1.00011 2.84961e-06 0)
(1.00009 1.41025e-06 0)
(1.00007 8.30406e-07 0)
(1.00004 -3.75641e-07 0)
(1 -7.64746e-07 0)
(0.999963 -1.61597e-06 0)
(0.999924 -1.76265e-06 0)
(0.999887 -2.25041e-06 0)
(0.999851 -2.18539e-06 0)
(0.99982 -2.39517e-06 0)
(0.999792 -2.19713e-06 0)
(0.99977 -2.24775e-06 0)
(0.999752 -2.01739e-06 0)
(0.999739 -2.01084e-06 0)
(0.999728 -1.8337e-06 0)
(0.99972 -1.82543e-06 0)
(0.999713 -1.73917e-06 0)
(0.999707 -1.7138e-06 0)
(0.999699 -1.7095e-06 0)
(0.99969 -1.62405e-06 0)
(0.999679 -1.65531e-06 0)
(0.999666 -1.45032e-06 0)
(0.999653 -1.45335e-06 0)
(0.999638 -1.10423e-06 0)
(0.999622 -1.04832e-06 0)
(0.999607 -5.88157e-07 0)
(0.999594 -4.48128e-07 0)
(0.999582 5.05708e-08 0)
(0.999573 2.26737e-07 0)
(0.999567 6.39852e-07 0)
(0.999564 8.03112e-07 0)
(0.999564 1.03078e-06 0)
(0.999566 1.09089e-06 0)
(0.999569 1.07638e-06 0)
(0.999572 9.8931e-07 0)
(0.999573 7.58499e-07 0)
(0.99957 5.15953e-07 0)
(0.999563 1.84848e-07 0)
(0.999551 -1.40035e-07 0)
(0.999532 -4.30028e-07 0)
(0.999507 -7.52707e-07 0)
(0.999477 -8.83193e-07 0)
(0.999443 -1.08822e-06 0)
(0.999406 -1.01244e-06 0)
(0.999369 -1.07062e-06 0)
(0.999333 -8.43957e-07 0)
(0.9993 -7.35948e-07 0)
(0.99927 -4.4462e-07 0)
(0.999245 -2.53286e-07 0)
(0.999224 -1.0595e-08 0)
(0.999206 2.21848e-07 0)
(0.999191 3.62109e-07 0)
(0.999178 5.53638e-07 0)
(0.999166 5.63136e-07 0)
(0.999154 7.2064e-07 0)
(0.999143 6.15312e-07 0)
(0.999132 7.08032e-07 0)
(0.999122 4.94443e-07 0)
(0.999113 5.42428e-07 0)
(0.999104 2.33582e-07 0)
(0.999097 2.0325e-07 0)
(0.999091 -1.87569e-07 0)
(0.999085 -3.13584e-07 0)
(0.999079 -7.60097e-07 0)
(0.999071 -1.01065e-06 0)
(0.99906 -1.4366e-06 0)
(0.999045 -1.7791e-06 0)
(0.999026 -2.11355e-06 0)
(0.999004 -2.40908e-06 0)
(0.998982 -2.48281e-06 0)
(0.998965 -2.70627e-06 0)
(0.998954 -2.42452e-06 0)
(0.998945 -2.28371e-06 0)
(0.998929 -1.75264e-06 0)
(0.998901 -1.36627e-06 0)
(0.998863 -9.51573e-07 0)
(0.99883 -6.21995e-07 0)
(0.998814 -1.93847e-07 0)
(0.99976 -3.16202e-05 0)
(0.999366 -2.77289e-05 0)
(0.999175 -2.38382e-05 0)
(0.99918 -1.68887e-05 0)
(0.999311 -1.09261e-05 0)
(0.999487 -3.85384e-06 0)
(0.999644 1.2906e-06 0)
(0.999754 6.93636e-06 0)
(0.999815 1.07107e-05 0)
(0.999842 1.49404e-05 0)
(0.999854 1.74389e-05 0)
(0.999866 2.02693e-05 0)
(0.999886 2.15735e-05 0)
(0.999915 2.29117e-05 0)
(0.999951 2.29559e-05 0)
(0.999991 2.27803e-05 0)
(1.00003 2.16693e-05 0)
(1.00007 2.01405e-05 0)
(1.00009 1.80453e-05 0)
(1.00011 1.54676e-05 0)
(1.00012 1.27455e-05 0)
(1.00012 9.62618e-06 0)
(1.00011 6.76005e-06 0)
(1.00009 3.6717e-06 0)
(1.00007 1.16386e-06 0)
(1.00003 -1.36295e-06 0)
(1 -3.14809e-06 0)
(0.999962 -4.82222e-06 0)
(0.999924 -5.75064e-06 0)
(0.999886 -6.52984e-06 0)
(0.999851 -6.72312e-06 0)
(0.999819 -6.83479e-06 0)
(0.999792 -6.56908e-06 0)
(0.99977 -6.31962e-06 0)
(0.999752 -5.90044e-06 0)
(0.999739 -5.5964e-06 0)
(0.999728 -5.26542e-06 0)
(0.99972 -5.06636e-06 0)
(0.999714 -4.89159e-06 0)
(0.999707 -4.79277e-06 0)
(0.999699 -4.72359e-06 0)
(0.99969 -4.60367e-06 0)
(0.999679 -4.49027e-06 0)
(0.999667 -4.17468e-06 0)
(0.999653 -3.87122e-06 0)
(0.999638 -3.2541e-06 0)
(0.999623 -2.72058e-06 0)
(0.999608 -1.80846e-06 0)
(0.999594 -1.07336e-06 0)
(0.999583 9.65117e-10 0)
(0.999573 7.39483e-07 0)
(0.999567 1.70903e-06 0)
(0.999564 2.23442e-06 0)
(0.999564 2.83692e-06 0)
(0.999566 2.92482e-06 0)
(0.999569 2.96042e-06 0)
(0.999572 2.51943e-06 0)
(0.999572 1.99657e-06 0)
(0.99957 1.13134e-06 0)
(0.999563 2.74849e-07 0)
(0.99955 -7.47811e-07 0)
(0.999531 -1.58945e-06 0)
(0.999507 -2.46272e-06 0)
(0.999477 -2.95509e-06 0)
(0.999443 -3.40996e-06 0)
(0.999406 -3.37019e-06 0)
(0.999369 -3.37215e-06 0)
(0.999334 -2.85891e-06 0)
(0.9993 -2.47853e-06 0)
(0.999271 -1.68018e-06 0)
(0.999245 -1.17064e-06 0)
(0.999224 -3.69415e-07 0)
(0.999206 9.48475e-08 0)
(0.999191 7.34249e-07 0)
(0.999178 9.94454e-07 0)
(0.999166 1.37539e-06 0)
(0.999155 1.43318e-06 0)
(0.999143 1.58567e-06 0)
(0.999132 1.42451e-06 0)
(0.999122 1.33708e-06 0)
(0.999112 9.81502e-07 0)
(0.999104 6.7636e-07 0)
(0.999097 1.08459e-07 0)
(0.99909 -4.58967e-07 0)
(0.999084 -1.27071e-06 0)
(0.999078 -2.09332e-06 0)
(0.99907 -3.13308e-06 0)
(0.99906 -4.12166e-06 0)
(0.999045 -5.26659e-06 0)
(0.999025 -6.13009e-06 0)
(0.999004 -6.92942e-06 0)
(0.998982 -7.18434e-06 0)
(0.998965 -7.37097e-06 0)
(0.998954 -6.93864e-06 0)
(0.998946 -6.35672e-06 0)
(0.99893 -5.24637e-06 0)
(0.998902 -4.05363e-06 0)
(0.998864 -2.92478e-06 0)
(0.998831 -1.77492e-06 0)
(0.998814 -5.9598e-07 0)
(0.999758 -4.30506e-05 0)
(0.999368 -3.80781e-05 0)
(0.999181 -2.96167e-05 0)
(0.999187 -2.02978e-05 0)
(0.999319 -1.12258e-05 0)
(0.999494 -3.24931e-06 0)
(0.999651 3.99911e-06 0)
(0.99976 1.03645e-05 0)
(0.99982 1.6266e-05 0)
(0.999846 2.14562e-05 0)
(0.999858 2.5852e-05 0)
(0.999869 2.94528e-05 0)
(0.999887 3.18037e-05 0)
(0.999916 3.33637e-05 0)
(0.999951 3.35027e-05 0)
(0.999991 3.29718e-05 0)
(1.00003 3.10977e-05 0)
(1.00006 2.87638e-05 0)
(1.00009 2.53109e-05 0)
(1.00011 2.1606e-05 0)
(1.00012 1.717e-05 0)
(1.00011 1.28123e-05 0)
(1.0001 8.19433e-06 0)
(1.00009 3.97007e-06 0)
(1.00006 -4.33414e-08 0)
(1.00003 -3.39821e-06 0)
(0.999997 -6.24141e-06 0)
(0.99996 -8.32768e-06 0)
(0.999923 -9.80306e-06 0)
(0.999886 -1.05964e-05 0)
(0.999851 -1.09186e-05 0)
(0.99982 -1.07663e-05 0)
(0.999793 -1.03739e-05 0)
(0.99977 -9.74678e-06 0)
(0.999753 -9.13039e-06 0)
(0.999739 -8.49281e-06 0)
(0.999729 -8.00423e-06 0)
(0.999721 -7.58751e-06 0)
(0.999714 -7.32216e-06 0)
(0.999707 -7.12581e-06 0)
(0.999699 -6.97771e-06 0)
(0.99969 -6.81599e-06 0)
(0.999679 -6.55114e-06 0)
(0.999667 -6.16284e-06 0)
(0.999653 -5.57434e-06 0)
(0.999639 -4.80943e-06 0)
(0.999624 -3.8434e-06 0)
(0.999609 -2.67931e-06 0)
(0.999595 -1.42875e-06 0)
(0.999584 -5.50447e-08 0)
(0.999574 1.17434e-06 0)
(0.999568 2.40453e-06 0)
(0.999565 3.24438e-06 0)
(0.999564 3.9617e-06 0)
(0.999566 4.09144e-06 0)
(0.999569 4.00243e-06 0)
(0.999571 3.29465e-06 0)
(0.999571 2.41791e-06 0)
(0.999569 1.08265e-06 0)
(0.999561 -2.77525e-07 0)
(0.999549 -1.81709e-06 0)
(0.99953 -3.16869e-06 0)
(0.999506 -4.41415e-06 0)
(0.999476 -5.26526e-06 0)
(0.999442 -5.84476e-06 0)
(0.999406 -5.94082e-06 0)
(0.99937 -5.80154e-06 0)
(0.999334 -5.18463e-06 0)
(0.999301 -4.5007e-06 0)
(0.999272 -3.44796e-06 0)
(0.999246 -2.58549e-06 0)
(0.999225 -1.4776e-06 0)
(0.999207 -7.40817e-07 0)
(0.999192 1.68864e-07 0)
(0.999179 5.95161e-07 0)
(0.999166 1.17731e-06 0)
(0.999155 1.27266e-06 0)
(0.999143 1.55407e-06 0)
(0.999132 1.33072e-06 0)
(0.999122 1.29114e-06 0)
(0.999112 7.60852e-07 0)
(0.999103 4.20325e-07 0)
(0.999096 -4.31639e-07 0)
(0.999089 -1.1634e-06 0)
(0.999083 -2.38737e-06 0)
(0.999077 -3.53586e-06 0)
(0.999069 -5.11017e-06 0)
(0.999058 -6.6016e-06 0)
(0.999043 -8.27498e-06 0)
(0.999024 -9.58567e-06 0)
(0.999003 -1.06195e-05 0)
(0.998982 -1.09903e-05 0)
(0.998965 -1.09096e-05 0)
(0.998955 -1.04162e-05 0)
(0.998947 -9.42423e-06 0)
(0.998932 -8.01192e-06 0)
(0.998903 -6.28212e-06 0)
(0.998866 -4.5301e-06 0)
(0.998833 -2.77907e-06 0)
(0.998816 -9.27982e-07 0)
(0.999765 -5.0472e-05 0)
(0.99938 -4.36381e-05 0)
(0.999193 -2.98439e-05 0)
(0.999198 -1.95679e-05 0)
(0.999328 -8.10549e-06 0)
(0.999502 -1.20033e-06 0)
(0.999658 7.07092e-06 0)
(0.999766 1.25709e-05 0)
(0.999826 1.98662e-05 0)
(0.999852 2.48771e-05 0)
(0.999862 3.08481e-05 0)
(0.999872 3.42471e-05 0)
(0.999889 3.7664e-05 0)
(0.999917 3.87024e-05 0)
(0.999951 3.91525e-05 0)
(0.999989 3.78144e-05 0)
(1.00003 3.56139e-05 0)
(1.00006 3.24026e-05 0)
(1.00009 2.81607e-05 0)
(1.0001 2.36135e-05 0)
(1.00011 1.81214e-05 0)
(1.00011 1.30553e-05 0)
(1.0001 7.31636e-06 0)
(1.00008 2.61822e-06 0)
(1.00006 -2.38794e-06 0)
(1.00003 -5.93546e-06 0)
(0.999995 -9.49203e-06 0)
(0.999958 -1.14611e-05 0)
(0.999921 -1.33321e-05 0)
(0.999885 -1.37922e-05 0)
(0.999851 -1.42388e-05 0)
(0.99982 -1.36231e-05 0)
(0.999793 -1.31965e-05 0)
(0.999771 -1.21087e-05 0)
(0.999753 -1.1422e-05 0)
(0.99974 -1.03891e-05 0)
(0.999729 -9.86567e-06 0)
(0.999721 -9.15721e-06 0)
(0.999714 -8.90786e-06 0)
(0.999707 -8.49723e-06 0)
(0.999699 -8.37954e-06 0)
(0.99969 -8.04859e-06 0)
(0.99968 -7.76072e-06 0)
(0.999668 -7.20753e-06 0)
(0.999654 -6.51574e-06 0)
(0.99964 -5.58581e-06 0)
(0.999625 -4.41327e-06 0)
(0.99961 -3.08996e-06 0)
(0.999597 -1.58268e-06 0)
(0.999585 -9.11782e-08 0)
(0.999576 1.37582e-06 0)
(0.999569 2.64855e-06 0)
(0.999566 3.6146e-06 0)
(0.999565 4.27477e-06 0)
(0.999566 4.33928e-06 0)
(0.999568 4.09094e-06 0)
(0.99957 3.11573e-06 0)
(0.99957 2.01834e-06 0)
(0.999567 2.72662e-07 0)
(0.99956 -1.30643e-06 0)
(0.999547 -3.30058e-06 0)
(0.999529 -4.81459e-06 0)
(0.999504 -6.42142e-06 0)
(0.999475 -7.32798e-06 0)
(0.999442 -8.12172e-06 0)
(0.999406 -8.17511e-06 0)
(0.99937 -8.07168e-06 0)
(0.999335 -7.3181e-06 0)
(0.999302 -6.56401e-06 0)
(0.999273 -5.32089e-06 0)
(0.999247 -4.35091e-06 0)
(0.999226 -3.01563e-06 0)
(0.999208 -2.22195e-06 0)
(0.999193 -1.07171e-06 0)
(0.999179 -6.60962e-07 0)
(0.999167 1.82286e-07 0)
(0.999155 1.72517e-07 0)
(0.999143 7.12996e-07 0)
(0.999132 3.06008e-07 0)
(0.999121 5.32075e-07 0)
(0.999112 -2.63191e-07 0)
(0.999103 -3.68154e-07 0)
(0.999095 -1.57662e-06 0)
(0.999088 -2.10462e-06 0)
(0.999082 -3.79581e-06 0)
(0.999075 -4.83188e-06 0)
(0.999067 -6.98084e-06 0)
(0.999056 -8.42581e-06 0)
(0.999042 -1.06697e-05 0)
(0.999023 -1.18938e-05 0)
(0.999002 -1.32888e-05 0)
(0.998982 -1.33279e-05 0)
(0.998966 -1.33793e-05 0)
(0.998956 -1.23607e-05 0)
(0.998948 -1.12193e-05 0)
(0.998933 -9.32832e-06 0)
(0.998905 -7.47532e-06 0)
(0.998868 -5.47376e-06 0)
(0.998835 -3.34752e-06 0)
(0.998818 -1.11963e-06 0)
(0.999765 -4.57838e-05 0)
(0.999388 -4.02648e-05 0)
(0.999205 -2.65841e-05 0)
(0.999209 -1.5197e-05 0)
(0.999337 -4.2485e-06 0)
(0.999509 2.32103e-06 0)
(0.999664 9.21143e-06 0)
(0.999772 1.42139e-05 0)
(0.999832 2.0733e-05 0)
(0.999857 2.58097e-05 0)
(0.999867 3.1495e-05 0)
(0.999875 3.50715e-05 0)
(0.999892 3.82585e-05 0)
(0.999917 3.91783e-05 0)
(0.99995 3.92138e-05 0)
(0.999987 3.74899e-05 0)
(1.00002 3.48799e-05 0)
(1.00006 3.11793e-05 0)
(1.00008 2.66198e-05 0)
(1.0001 2.15949e-05 0)
(1.00011 1.59336e-05 0)
(1.0001 1.04653e-05 0)
(1.00009 4.72352e-06 0)
(1.00008 -2.70198e-07 0)
(1.00005 -5.14295e-06 0)
(1.00002 -8.85332e-06 0)
(0.999992 -1.21243e-05 0)
(0.999957 -1.41393e-05 0)
(0.99992 -1.56514e-05 0)
(0.999885 -1.60826e-05 0)
(0.999851 -1.61192e-05 0)
(0.999821 -1.5452e-05 0)
(0.999794 -1.46418e-05 0)
(0.999772 -1.35316e-05 0)
(0.999754 -1.24979e-05 0)
(0.999741 -1.14904e-05 0)
(0.99973 -1.06805e-05 0)
(0.999722 -1.00424e-05 0)
(0.999714 -9.53862e-06 0)
(0.999707 -9.22775e-06 0)
(0.9997 -8.88619e-06 0)
(0.999691 -8.65607e-06 0)
(0.99968 -8.14575e-06 0)
(0.999668 -7.69972e-06 0)
(0.999655 -6.805e-06 0)
(0.999641 -5.99048e-06 0)
(0.999626 -4.63206e-06 0)
(0.999612 -3.4618e-06 0)
(0.999598 -1.8044e-06 0)
(0.999587 -5.29982e-07 0)
(0.999577 1.04572e-06 0)
(0.99957 2.02684e-06 0)
(0.999566 3.07451e-06 0)
(0.999565 3.36259e-06 0)
(0.999566 3.49352e-06 0)
(0.999567 2.81765e-06 0)
(0.999569 1.92734e-06 0)
(0.999569 3.88909e-07 0)
(0.999565 -1.218e-06 0)
(0.999558 -3.2268e-06 0)
(0.999545 -5.03097e-06 0)
(0.999527 -6.93028e-06 0)
(0.999503 -8.27752e-06 0)
(0.999474 -9.5463e-06 0)
(0.999442 -1.00561e-05 0)
(0.999406 -1.04628e-05 0)
(0.999371 -1.00464e-05 0)
(0.999336 -9.66616e-06 0)
(0.999303 -8.58582e-06 0)
(0.999274 -7.74193e-06 0)
(0.999249 -6.40683e-06 0)
(0.999227 -5.4954e-06 0)
(0.999209 -4.28826e-06 0)
(0.999193 -3.56915e-06 0)
(0.99918 -2.66864e-06 0)
(0.999167 -2.25885e-06 0)
(0.999155 -1.72464e-06 0)
(0.999143 -1.62255e-06 0)
(0.999132 -1.42308e-06 0)
(0.999121 -1.6437e-06 0)
(0.999111 -1.8143e-06 0)
(0.999102 -2.38479e-06 0)
(0.999094 -2.94377e-06 0)
(0.999087 -3.96758e-06 0)
(0.999081 -5.05037e-06 0)
(0.999074 -6.61655e-06 0)
(0.999065 -8.16874e-06 0)
(0.999055 -1.0143e-05 0)
(0.99904 -1.17989e-05 0)
(0.999022 -1.34974e-05 0)
(0.999001 -1.42239e-05 0)
(0.998982 -1.46643e-05 0)
(0.998966 -1.40103e-05 0)
(0.998957 -1.31354e-05 0)
(0.99895 -1.13048e-05 0)
(0.998935 -9.40339e-06 0)
(0.998907 -7.44434e-06 0)
(0.99887 -5.6073e-06 0)
(0.998837 -3.5223e-06 0)
(0.99882 -1.19965e-06 0)
(0.99977 -2.78344e-05 0)
(0.999399 -1.40312e-05 0)
(0.999218 -9.42029e-06 0)
(0.99922 3.2274e-06 0)
(0.999345 3.96436e-06 0)
(0.999515 1.05235e-05 0)
(0.99967 9.15796e-06 0)
(0.999778 1.51844e-05 0)
(0.999838 1.61244e-05 0)
(0.999863 2.31898e-05 0)
(0.999871 2.51655e-05 0)
(0.999879 3.05504e-05 0)
(0.999894 3.11404e-05 0)
(0.999918 3.2877e-05 0)
(0.999949 3.13453e-05 0)
(0.999985 2.96409e-05 0)
(1.00002 2.66846e-05 0)
(1.00005 2.25482e-05 0)
(1.00008 1.87957e-05 0)
(1.00009 1.31586e-05 0)
(1.0001 9.18275e-06 0)
(1.0001 3.07418e-06 0)
(1.00009 -5.11648e-07 0)
(1.00007 -6.14796e-06 0)
(1.00005 -8.75301e-06 0)
(1.00002 -1.30383e-05 0)
(0.999989 -1.42182e-05 0)
(0.999955 -1.67869e-05 0)
(0.99992 -1.65621e-05 0)
(0.999885 -1.75137e-05 0)
(0.999852 -1.62221e-05 0)
(0.999822 -1.60923e-05 0)
(0.999795 -1.43271e-05 0)
(0.999773 -1.37361e-05 0)
(0.999756 -1.20249e-05 0)
(0.999742 -1.14884e-05 0)
(0.999731 -1.01886e-05 0)
(0.999722 -9.88259e-06 0)
(0.999715 -9.0367e-06 0)
(0.999708 -8.88777e-06 0)
(0.9997 -8.36204e-06 0)
(0.999691 -8.0921e-06 0)
(0.999681 -7.60931e-06 0)
(0.999669 -6.98489e-06 0)
(0.999656 -6.37111e-06 0)
(0.999642 -5.31393e-06 0)
(0.999627 -4.48591e-06 0)
(0.999613 -3.1203e-06 0)
(0.9996 -2.17137e-06 0)
(0.999588 -8.50625e-07 0)
(0.999578 -1.71081e-08 0)
(0.999571 8.26091e-07 0)
(0.999567 1.2744e-06 0)
(0.999565 1.25698e-06 0)
(0.999565 1.0734e-06 0)
(0.999567 2.04531e-08 0)
(0.999568 -8.24302e-07 0)
(0.999567 -2.67658e-06 0)
(0.999564 -3.95106e-06 0)
(0.999556 -6.14425e-06 0)
(0.999543 -7.47962e-06 0)
(0.999525 -9.39443e-06 0)
(0.999502 -1.03465e-05 0)
(0.999473 -1.15729e-05 0)
(0.999441 -1.19037e-05 0)
(0.999406 -1.23215e-05 0)
(0.999371 -1.1966e-05 0)
(0.999336 -1.17772e-05 0)
(0.999304 -1.08779e-05 0)
(0.999275 -1.04339e-05 0)
(0.99925 -9.21722e-06 0)
(0.999228 -8.88294e-06 0)
(0.99921 -7.54653e-06 0)
(0.999194 -7.48787e-06 0)
(0.999181 -6.13205e-06 0)
(0.999168 -6.4308e-06 0)
(0.999156 -5.11488e-06 0)
(0.999144 -5.72921e-06 0)
(0.999132 -4.49193e-06 0)
(0.999121 -5.47097e-06 0)
(0.999111 -4.41549e-06 0)
(0.999102 -5.73762e-06 0)
(0.999094 -4.9694e-06 0)
(0.999086 -6.73659e-06 0)
(0.999079 -6.46358e-06 0)
(0.999072 -8.6172e-06 0)
(0.999064 -8.85906e-06 0)
(0.999053 -1.12165e-05 0)
(0.999038 -1.17221e-05 0)
(0.999021 -1.35873e-05 0)
(0.999001 -1.34394e-05 0)
(0.998982 -1.40033e-05 0)
(0.998967 -1.28157e-05 0)
(0.998959 -1.17025e-05 0)
(0.998952 -9.31444e-06 0)
(0.998937 -7.48432e-06 0)
(0.998909 -5.76992e-06 0)
(0.998872 -4.38004e-06 0)
(0.998839 -2.69029e-06 0)
(0.998823 -8.90908e-07 0)
(0.999779 3.65875e-05 0)
(0.999407 4.17636e-05 0)
(0.999222 4.10254e-05 0)
(0.999222 3.44763e-05 0)
(0.999344 2.55154e-05 0)
(0.999514 1.62039e-05 0)
(0.999669 9.81626e-06 0)
(0.999779 6.81027e-06 0)
(0.99984 7.40828e-06 0)
(0.999866 9.83716e-06 0)
(0.999874 1.29447e-05 0)
(0.999881 1.53925e-05 0)
(0.999894 1.639e-05 0)
(0.999917 1.60985e-05 0)
(0.999947 1.42671e-05 0)
(0.999982 1.19134e-05 0)
(1.00002 8.60782e-06 0)
(1.00005 5.44842e-06 0)
(1.00007 1.68777e-06 0)
(1.00009 -1.58107e-06 0)
(1.0001 -5.18004e-06 0)
(1.00009 -8.09275e-06 0)
(1.00009 -1.11479e-05 0)
(1.00007 -1.3362e-05 0)
(1.00005 -1.54271e-05 0)
(1.00002 -1.65221e-05 0)
(0.999988 -1.737e-05 0)
(0.999954 -1.73105e-05 0)
(0.99992 -1.70385e-05 0)
(0.999885 -1.60317e-05 0)
(0.999853 -1.50547e-05 0)
(0.999823 -1.36069e-05 0)
(0.999797 -1.24296e-05 0)
(0.999774 -1.09704e-05 0)
(0.999757 -9.98952e-06 0)
(0.999743 -8.83085e-06 0)
(0.999732 -8.19326e-06 0)
(0.999723 -7.34398e-06 0)
(0.999715 -6.98221e-06 0)
(0.999708 -6.34211e-06 0)
(0.9997 -6.0784e-06 0)
(0.999691 -5.43076e-06 0)
(0.999681 -5.08569e-06 0)
(0.99967 -4.32494e-06 0)
(0.999657 -3.86995e-06 0)
(0.999643 -2.9925e-06 0)
(0.999628 -2.50073e-06 0)
(0.999614 -1.6263e-06 0)
(0.999601 -1.31532e-06 0)
(0.999589 -6.62936e-07 0)
(0.999579 -7.69087e-07 0)
(0.999572 -5.32523e-07 0)
(0.999567 -1.21835e-06 0)
(0.999565 -1.51032e-06 0)
(0.999565 -2.81674e-06 0)
(0.999566 -3.59995e-06 0)
(0.999566 -5.31531e-06 0)
(0.999566 -6.30862e-06 0)
(0.999562 -8.10779e-06 0)
(0.999554 -9.02084e-06 0)
(0.999542 -1.05576e-05 0)
(0.999524 -1.1071e-05 0)
(0.999501 -1.21513e-05 0)
(0.999473 -1.22021e-05 0)
(0.999441 -1.28702e-05 0)
(0.999406 -1.25249e-05 0)
(0.999371 -1.29557e-05 0)
(0.999337 -1.23927e-05 0)
(0.999304 -1.27626e-05 0)
(0.999275 -1.20856e-05 0)
(0.99925 -1.24882e-05 0)
(0.999229 -1.17399e-05 0)
(0.99921 -1.21188e-05 0)
(0.999195 -1.12114e-05 0)
(0.999181 -1.15209e-05 0)
(0.999168 -1.04697e-05 0)
(0.999156 -1.06883e-05 0)
(0.999144 -9.50884e-06 0)
(0.999132 -9.75821e-06 0)
(0.999121 -8.64036e-06 0)
(0.999111 -9.01335e-06 0)
(0.999102 -8.02456e-06 0)
(0.999093 -8.65352e-06 0)
(0.999086 -7.99197e-06 0)
(0.999079 -8.91617e-06 0)
(0.999071 -8.54268e-06 0)
(0.999063 -9.71749e-06 0)
(0.999052 -9.59699e-06 0)
(0.999038 -1.07986e-05 0)
(0.99902 -1.0449e-05 0)
(0.999001 -1.11074e-05 0)
(0.998983 -1.00535e-05 0)
(0.998969 -9.45236e-06 0)
(0.998961 -7.14097e-06 0)
(0.998954 -5.02885e-06 0)
(0.998939 -2.85811e-06 0)
(0.99891 -1.75022e-06 0)
(0.998873 -1.09889e-06 0)
(0.998841 -5.53077e-07 0)
(0.998824 -9.84903e-08 0)
(0.999775 8.23121e-05 0)
(0.999404 6.97832e-05 0)
(0.99921 6.65455e-05 0)
(0.999205 4.89251e-05 0)
(0.999327 3.93831e-05 0)
(0.9995 2.08754e-05 0)
(0.99966 1.32484e-05 0)
(0.999775 1.88054e-06 0)
(0.999841 1.32875e-06 0)
(0.999868 -2.49994e-06 0)
(0.999877 5.24715e-07 0)
(0.999882 -7.82113e-07 0)
(0.999894 7.58305e-07 0)
(0.999915 -1.18798e-06 0)
(0.999945 -2.38545e-06 0)
(0.999979 -4.73425e-06 0)
(1.00001 -7.49703e-06 0)
(1.00004 -9.3289e-06 0)
(1.00007 -1.25403e-05 0)
(1.00009 -1.34187e-05 0)
(1.00009 -1.63863e-05 0)
(1.00009 -1.6351e-05 0)
(1.00008 -1.87814e-05 0)
(1.00007 -1.79174e-05 0)
(1.00005 -1.94574e-05 0)
(1.00002 -1.78329e-05 0)
(0.999989 -1.84184e-05 0)
(0.999955 -1.62336e-05 0)
(0.999921 -1.5985e-05 0)
(0.999887 -1.35568e-05 0)
(0.999854 -1.28734e-05 0)
(0.999824 -1.05722e-05 0)
(0.999798 -9.8033e-06 0)
(0.999776 -7.885e-06 0)
(0.999758 -7.28828e-06 0)
(0.999743 -5.86166e-06 0)
(0.999732 -5.43326e-06 0)
(0.999723 -4.44089e-06 0)
(0.999716 -4.08376e-06 0)
(0.999709 -3.43445e-06 0)
(0.999701 -2.9775e-06 0)
(0.999692 -2.54812e-06 0)
(0.999682 -1.92306e-06 0)
(0.99967 -1.70548e-06 0)
(0.999657 -9.86688e-07 0)
(0.999643 -1.00518e-06 0)
(0.999629 -3.81182e-07 0)
(0.999614 -7.04981e-07 0)
(0.999601 -4.34641e-07 0)
(0.999589 -1.09689e-06 0)
(0.999578 -1.3722e-06 0)
(0.999571 -2.30564e-06 0)
(0.999566 -3.15504e-06 0)
(0.999564 -4.24015e-06 0)
(0.999563 -5.55257e-06 0)
(0.999564 -6.59334e-06 0)
(0.999565 -8.02167e-06 0)
(0.999564 -8.82501e-06 0)
(0.999561 -1.00679e-05 0)
(0.999554 -1.05509e-05 0)
(0.999541 -1.13508e-05 0)
(0.999524 -1.15383e-05 0)
(0.999501 -1.19363e-05 0)
(0.999473 -1.2015e-05 0)
(0.999441 -1.22145e-05 0)
(0.999406 -1.23435e-05 0)
(0.999371 -1.26237e-05 0)
(0.999337 -1.28302e-05 0)
(0.999304 -1.32941e-05 0)
(0.999275 -1.34434e-05 0)
(0.99925 -1.40767e-05 0)
(0.999228 -1.39295e-05 0)
(0.99921 -1.45258e-05 0)
(0.999195 -1.39112e-05 0)
(0.999181 -1.44044e-05 0)
(0.999169 -1.32911e-05 0)
(0.999157 -1.36216e-05 0)
(0.999145 -1.21412e-05 0)
(0.999133 -1.24755e-05 0)
(0.999122 -1.08084e-05 0)
(0.999111 -1.11617e-05 0)
(0.999102 -9.48386e-06 0)
(0.999094 -9.98983e-06 0)
(0.999086 -8.48199e-06 0)
(0.999079 -9.03406e-06 0)
(0.999071 -7.76509e-06 0)
(0.999063 -8.3334e-06 0)
(0.999052 -7.40956e-06 0)
(0.999038 -7.90552e-06 0)
(0.99902 -7.22478e-06 0)
(0.999001 -7.33898e-06 0)
(0.998984 -6.33127e-06 0)
(0.99897 -5.16741e-06 0)
(0.998963 -2.51814e-06 0)
(0.998956 -2.81977e-08 0)
(0.99894 1.60558e-06 0)
(0.998911 1.39667e-06 0)
(0.998873 4.2069e-07 0)
(0.99884 -5.15429e-07 0)
(0.998823 -4.77461e-07 0)
(0.999766 -2.15652e-05 0)
(0.999391 -1.34461e-05 0)
(0.999201 3.44624e-06 0)
(0.999195 2.56587e-05 0)
(0.999316 3.69291e-05 0)
(0.999488 4.02608e-05 0)
(0.99965 3.20703e-05 0)
(0.999767 2.21009e-05 0)
(0.999836 1.01636e-05 0)
(0.999866 2.95904e-06 0)
(0.999876 -2.18633e-06 0)
(0.999882 -3.3857e-06 0)
(0.999894 -3.67184e-06 0)
(0.999914 -3.14169e-06 0)
(0.999944 -2.81765e-06 0)
(0.999977 -3.44296e-06 0)
(1.00001 -4.11878e-06 0)
(1.00004 -6.15811e-06 0)
(1.00007 -7.48092e-06 0)
(1.00008 -1.00006e-05 0)
(1.00009 -1.12494e-05 0)
(1.00009 -1.35389e-05 0)
(1.00008 -1.42863e-05 0)
(1.00007 -1.58642e-05 0)
(1.00005 -1.59062e-05 0)
(1.00002 -1.66601e-05 0)
(0.99999 -1.60243e-05 0)
(0.999957 -1.59661e-05 0)
(0.999922 -1.47416e-05 0)
(0.999888 -1.40572e-05 0)
(0.999856 -1.24395e-05 0)
(0.999826 -1.13485e-05 0)
(0.999799 -9.56647e-06 0)
(0.999777 -8.37939e-06 0)
(0.999759 -6.73417e-06 0)
(0.999744 -5.70655e-06 0)
(0.999733 -4.4179e-06 0)
(0.999724 -3.72653e-06 0)
(0.999716 -2.92291e-06 0)
(0.999709 -2.56882e-06 0)
(0.999701 -2.17343e-06 0)
(0.999692 -2.04569e-06 0)
(0.999682 -1.94525e-06 0)
(0.999671 -1.955e-06 0)
(0.999657 -2.02392e-06 0)
(0.999643 -2.12719e-06 0)
(0.999629 -2.28923e-06 0)
(0.999614 -2.51035e-06 0)
(0.9996 -2.70944e-06 0)
(0.999588 -3.07101e-06 0)
(0.999578 -3.23947e-06 0)
(0.99957 -3.72835e-06 0)
(0.999565 -3.85828e-06 0)
(0.999562 -4.52904e-06 0)
(0.999562 -4.68965e-06 0)
(0.999563 -5.53491e-06 0)
(0.999564 -5.79828e-06 0)
(0.999563 -6.84907e-06 0)
(0.99956 -7.30495e-06 0)
(0.999553 -8.49162e-06 0)
(0.999541 -9.09748e-06 0)
(0.999524 -1.03445e-05 0)
(0.9995 -1.1018e-05 0)
(0.999472 -1.21977e-05 0)
(0.999441 -1.27388e-05 0)
(0.999406 -1.37226e-05 0)
(0.999371 -1.39132e-05 0)
(0.999336 -1.45615e-05 0)
(0.999304 -1.42615e-05 0)
(0.999275 -1.46141e-05 0)
(0.99925 -1.3868e-05 0)
(0.999228 -1.4015e-05 0)
(0.99921 -1.29857e-05 0)
(0.999195 -1.31543e-05 0)
(0.999182 -1.20251e-05 0)
(0.999169 -1.22486e-05 0)
(0.999157 -1.10536e-05 0)
(0.999145 -1.13455e-05 0)
(0.999134 -1.00467e-05 0)
(0.999122 -1.02323e-05 0)
(0.999112 -8.77258e-06 0)
(0.999103 -8.90681e-06 0)
(0.999094 -7.45365e-06 0)
(0.999087 -7.57574e-06 0)
(0.999079 -6.25311e-06 0)
(0.999072 -6.50719e-06 0)
(0.999063 -5.58034e-06 0)
(0.999052 -6.20052e-06 0)
(0.999038 -5.85034e-06 0)
(0.999021 -6.66773e-06 0)
(0.999002 -6.2271e-06 0)
(0.998985 -5.97172e-06 0)
(0.998973 -3.67576e-06 0)
(0.998966 -1.05548e-06 0)
(0.998958 8.72098e-07 0)
(0.99894 -1.31231e-07 0)
(0.998909 -3.1027e-06 0)
(0.998871 -5.84974e-06 0)
(0.99884 -6.02719e-06 0)
(0.998825 -2.64457e-06 0)
(0.999783 -6.3198e-05 0)
(0.999429 -4.59002e-05 0)
(0.99925 -2.56743e-05 0)
(0.999238 2.35363e-06 0)
(0.999342 1.74581e-05 0)
(0.999495 2.77738e-05 0)
(0.999642 2.41257e-05 0)
(0.999753 1.972e-05 0)
(0.999821 1.00462e-05 0)
(0.999856 5.24959e-06 0)
(0.999871 1.91197e-07 0)
(0.999881 -2.93809e-07 0)
(0.999895 -6.95334e-07 0)
(0.999916 4.90378e-07 0)
(0.999945 1.39543e-06 0)
(0.999978 1.61615e-06 0)
(1.00001 1.97947e-06 0)
(1.00004 7.04367e-07 0)
(1.00006 4.73012e-07 0)
(1.00008 -1.62572e-06 0)
(1.00009 -2.01606e-06 0)
(1.00009 -4.2449e-06 0)
(1.00008 -4.45012e-06 0)
(1.00007 -6.34064e-06 0)
(1.00005 -6.25479e-06 0)
(1.00002 -7.63975e-06 0)
(0.999989 -7.24813e-06 0)
(0.999957 -8.05561e-06 0)
(0.999923 -7.36745e-06 0)
(0.999889 -7.62581e-06 0)
(0.999857 -6.65997e-06 0)
(0.999827 -6.44647e-06 0)
(0.999801 -5.31289e-06 0)
(0.999779 -4.82662e-06 0)
(0.99976 -3.73374e-06 0)
(0.999746 -3.19593e-06 0)
(0.999734 -2.37661e-06 0)
(0.999725 -1.97881e-06 0)
(0.999717 -1.58515e-06 0)
(0.999709 -1.36608e-06 0)
(0.999701 -1.38255e-06 0)
(0.999692 -1.28007e-06 0)
(0.999682 -1.59978e-06 0)
(0.99967 -1.52025e-06 0)
(0.999657 -1.98179e-06 0)
(0.999643 -1.86481e-06 0)
(0.999628 -2.31279e-06 0)
(0.999614 -2.1422e-06 0)
(0.9996 -2.44399e-06 0)
(0.999588 -2.23067e-06 0)
(0.999578 -2.28775e-06 0)
(0.99957 -2.06768e-06 0)
(0.999565 -1.92302e-06 0)
(0.999563 -1.81282e-06 0)
(0.999562 -1.61547e-06 0)
(0.999563 -1.71689e-06 0)
(0.999564 -1.69148e-06 0)
(0.999563 -2.10569e-06 0)
(0.999559 -2.41717e-06 0)
(0.999552 -3.10524e-06 0)
(0.999539 -3.76445e-06 0)
(0.999522 -4.60777e-06 0)
(0.999499 -5.44675e-06 0)
(0.999471 -6.2236e-06 0)
(0.999439 -6.94821e-06 0)
(0.999405 -7.45332e-06 0)
(0.99937 -7.75396e-06 0)
(0.999336 -7.86463e-06 0)
(0.999304 -7.63216e-06 0)
(0.999276 -7.45589e-06 0)
(0.99925 -6.78641e-06 0)
(0.999229 -6.541e-06 0)
(0.999211 -5.71225e-06 0)
(0.999196 -5.66732e-06 0)
(0.999182 -4.86294e-06 0)
(0.99917 -5.07243e-06 0)
(0.999157 -4.34239e-06 0)
(0.999146 -4.73567e-06 0)
(0.999134 -3.95232e-06 0)
(0.999123 -4.32057e-06 0)
(0.999113 -3.43804e-06 0)
(0.999103 -3.74899e-06 0)
(0.999095 -2.85194e-06 0)
(0.999087 -3.10409e-06 0)
(0.99908 -2.35644e-06 0)
(0.999072 -2.65488e-06 0)
(0.999063 -2.281e-06 0)
(0.999051 -2.80517e-06 0)
(0.999037 -2.93798e-06 0)
(0.99902 -3.47743e-06 0)
(0.999002 -3.59027e-06 0)
(0.998986 -3.31592e-06 0)
(0.998975 -2.02082e-06 0)
(0.998968 -6.52562e-07 0)
(0.998957 -2.50788e-07 0)
(0.998937 -1.70386e-06 0)
(0.998905 -4.04346e-06 0)
(0.99887 -5.67971e-06 0)
(0.998843 -5.17548e-06 0)
(0.998832 -1.98056e-06 0)
)
;

boundaryField
{
    inlet
    {
        type            fixedValue;
        value           uniform (1 0 0);
    }
    outlet
    {
        type            zeroGradient;
    }
    top
    {
        type            slip;
    }
    bottom
    {
        type            slip;
    }
    front
    {
        type            empty;
    }
    back
    {
        type            empty;
    }
}


// ************************************************************************* //
